LAMMPS output created by EMC v9.4.4, build Jul 30 2020 08:29:59

          105  atoms
          82  bonds
         141  angles
         186  dihedrals
          88  impropers

          10  atom types
           8  bond types
          14  angle types
          16  dihedral types
          12  improper types

             0            9.7  xlo xhi
             0            7.2  ylo yhi
             0              5  zlo zhi

Masses

       1  195.09000  # Pt
       2   12.01115  # c
       3   18.99840  # f
       4    1.00797  # ho
       5    1.00797  # hw
       6   15.99940  # o*
       7   15.99940  # o=
       8   15.99940  # oc
       9   15.99940  # oh
      10   32.06400  # s

Atoms

       1       1   3 -0.2500   0.5827347697   4.9020722140   2.9157937515  # f
       2       1   2  0.7500   1.5616570264   4.5851276526   2.4222427947  # c
       3       1   3 -0.2500   1.5161162845   5.3656890232   1.7253979313  # f
       4       1   2  0.5000   2.5455650112   4.5215245667   3.2626166099  # c
       5       1   3 -0.2500   2.1475300940   3.6104480615   3.8203589569  # f
       6       1   2  0.5000   3.4119770955   4.0183321636   4.0131324299  # c
       7       1   3 -0.2500   3.6218930175   2.8304342462   4.1678452625  # f
       8       1   2  0.5000   3.0383887905   4.9705978388   4.8543454404  # c
       9       1   3 -0.2500   3.1250484284   4.8991932068   5.9033753749  # f
      10       1   2  0.5000   2.8742009373   6.2066307246   4.4854883537  # c
      11       1   3 -0.2500   2.8260501414   6.8123742221   5.2933349892  # f
      12       1   2  0.5000   3.2912821346   7.1410210370   3.6598735427  # c
      13       1   3 -0.2500   3.7528548494   8.0312891706   4.2281969461  # f
      14       1   2  0.5000   3.7219527530   6.7813224298   2.5268246912  # c
      15       1   3 -0.2500   2.9159176102   6.3639810041   1.9802341749  # f
      16       1   2  0.5000   4.2823973306   7.7835061476   2.0088417720  # c
      17       1   3 -0.2500   3.9587064031   8.2239639681   0.9897659972  # f
      18       1   2  0.5000   5.1579120621   8.4698847646   2.7619831014  # c
      19       1   3 -0.2500   5.3779527041   7.7912620748   3.6319509505  # f
      20       1   2  0.5000   5.9855234134   8.3603034039   1.7904944109  # c
      21       1   3 -0.2500   7.1264374851   8.1105994970   2.2204464334  # f
      22       1   2  0.5000   6.4896443962   9.4212310485   1.5079171174  # c
      23       1   3 -0.2500   7.6674455674   9.7285991985   1.5167257158  # f
      24       1   2  0.5000   5.7154784714   9.9524812735   0.6304760044  # c
      25       1   3 -0.2500   5.0539999270   9.2744443588  -0.1908905031  # f
      26       1   2  0.5000   5.6976898983  11.2426962285   0.5769369221  # c
      27       1   3 -0.2500   6.7483568974  11.7359521818   0.5839753876  # f
      28       1   2  0.5000   5.5399673308  12.0709099563   1.5333581757  # c
      29       1   3 -0.2500   4.5064026744  12.0096625073   1.8583181770  # f
      30       1   2  0.3830   5.9388548075  13.3259286532   1.4306663820  # c
      31       1   8 -0.2660   7.1789049411  13.2228884038   1.8578528972  # oc
      32       1   2  0.6330   8.1987418878  13.8884724685   1.4783460386  # c
      33       1   3 -0.2500   9.2797280988  13.3272731465   1.7677882770  # f
      34       1   2  0.3830   7.9224190386  13.4779227769   0.3260619430  # c
      35       1   2  0.7500   8.0048323526  13.4313889070  -0.9714067381  # c
      36       1   3 -0.2500   7.1287939565  14.0359897965  -1.2998506265  # f
      37       1   3 -0.2500   8.4725132545  12.5387206220  -1.5242463247  # f
      38       1   3 -0.2500   8.1704801274  14.2714250649  -1.5569868316  # f
      39       1   8 -0.2660   8.5680214675  14.6348778074   0.4510848496  # oc
      40       1   2  0.6330   8.7034752804  15.6038234235  -0.3328279112  # c
      41       1   3 -0.2500   8.6554401375  15.9441128299   0.6056217894  # f
      42       1   2  0.5650   7.7655770688  16.5216869955  -0.3906053399  # c
      43       1   3 -0.2500   7.7000308522  16.1744707183  -1.3290641984  # f
      44       1  10  0.2779   8.0312846961  17.4997192632  -1.4516775483  # s
      45       1   7 -0.1143   8.2004291654  17.8471149806  -0.1724499293  # o=
      46       1   7 -0.1143   7.1064221565  17.8642085944  -2.0534151948  # o=
      47       1   9 -0.5384   8.1019986377  18.2257053629  -0.4360128460  # oh
      48       1   4  0.4241   7.4851868269  18.9512522077  -0.5301156422  # ho
      49       1   3 -0.2500   6.8438341571  15.9215445543  -0.8785041723  # f
      50       1   3 -0.2500   9.6305709558  15.9240691871  -0.1836490006  # f
      51       1   3 -0.2500   7.2620227273  14.4567815050   0.3739486825  # f
      52       1   3 -0.2500   9.1989984383  13.5456375316   2.1471827420  # f
      53       1   2  0.7500   4.9760382589  13.7107332356   0.6021629160  # c
      54       1   3 -0.2500   5.8346433705  13.6172106065  -0.0739306350  # f
      55       1   3 -0.2500   4.8998509057  13.3783290396  -0.4093501862  # f
      56       1   3 -0.2500   5.3044442815  14.6132961844   0.2124651190  # f
      57       1   3 -0.2500   5.8738357981  13.6212760835   2.4950944566  # f
      58       1   3 -0.2500   4.8291190926  11.7301545614   0.6108985772  # f
      59       1   3 -0.2500   6.5636807279  11.3229157231   1.3594170942  # f
      60       1   3 -0.2500   6.0438766540  10.2979570414  -0.3984031083  # f
      61       1   3 -0.2500   6.3543681783   8.6472393614   0.7707701313  # f
      62       1   3 -0.2500   6.7079334765   8.0083327493   2.5184410261  # f
      63       1   3 -0.2500   4.0673619727   8.9445363193   2.8086705986  # f
      64       1   3 -0.2500   3.2925500961   8.1407066346   1.4495773480  # f
      65       1   3 -0.2500   4.2237610215   6.0220363423   2.9616642777  # f
      66       1   3 -0.2500   2.4925678741   7.8042759372   3.2225147523  # f
      67       1   3 -0.2500   2.1232176474   6.2080069847   5.1967791056  # f
      68       1   3 -0.2500   2.2404145393   4.2854168480   5.4879282974  # f
      69       1   3 -0.2500   4.2895715666   4.6352177730   3.8888179649  # f
      70       1   3 -0.2500   2.9924245068   4.0372078850   2.4811329435  # f
      71       1   3 -0.2500   1.6718037463   5.5073453594   3.0209946842  # f
      72       2   6 -0.7982   0.4043462903   3.1462499049   3.6790726171  # o*
      73       2   5  0.3991  -0.1174841868   3.2520070946   2.8701137898  # hw
      74       2   5  0.3991  -0.2026626152   2.9460147322   4.3568277549  # hw
      75       3   6 -0.7982   5.1633308350   3.2844025166   2.8883186056  # o*
      76       3   5  0.3991   5.2373895447   3.7093034279   3.7060997582  # hw
      77       3   5  0.3991   5.8168527090   3.8348416339   2.4911825763  # hw
      78       4   6 -0.7982   2.1031338498   2.2048043822   2.4096627439  # o*
      79       4   5  0.3991   1.6010161754   2.4561836868   3.1587153050  # hw
      80       4   5  0.3991   2.0799240870   2.8609830866   1.6855996385  # hw
      81       5   6 -0.7982   8.5526820482   4.3450719798   1.8002308309  # o*
      82       5   5  0.3991   8.7913574497   3.4332354322   1.8482484315  # hw
      83       5   5  0.3991   9.3689365718   4.8138868124   1.9124301996  # hw
      84       6   6 -0.7982   6.2561407348   5.0201401750   3.6956560773  # o*
      85       6   5  0.3991   6.9675369504   5.0170870649   3.1227003717  # hw
      86       6   5  0.3991   5.4062759634   5.3385881652   3.2676114801  # hw
      87       7   6 -0.7982   3.6748146747   2.9268668919   1.0730875737  # o*
      88       7   5  0.3991   3.6364761441   2.2403126522   0.4767749152  # hw
      89       7   5  0.3991   3.6754938666   2.6529250495   1.9471556499  # hw
90 8 1 0.0000 0.00000000 0.00000000 0.00000000 # Pt
91 9 1 0.0000 2.77185858 0.00000000 0.00000000 # Pt
92 10 1 0.0000 5.54371716 0.00000000 0.00000000 # Pt
93 11 1 0.0000 8.31557575 0.00000000 0.00000000 # Pt
94 12 1 0.0000 1.38592929 2.40049995 0.00000000 # Pt
95 13 1 0.0000 4.15778787 2.40049995 0.00000000 # Pt
96 14 1 0.0000 6.92964646 2.40049995 0.00000000 # Pt
97 15 1 0.0000 9.70150504 2.40049995 0.00000000 # Pt
98 16 1 0.0000 0.00000000 4.80099990 0.00000000 # Pt
99 17 1 0.0000 2.77185858 4.80099990 0.00000000 # Pt
100 18 1 0.0000 5.54371716 4.80099990 0.00000000 # Pt
101 19 1 0.0000 8.31557575 4.80099990 0.00000000 # Pt
102 20 1 0.0000 1.38592929 7.20149984 0.00000000 # Pt
103 21 1 0.0000 4.15778787 7.20149984 0.00000000 # Pt
104 22 1 0.0000 6.92964646 7.20149984 0.00000000 # Pt
105 23 1 0.0000 9.70150504 7.20149984 0.00000000 # Pt


Bonds

       1       2       2       1  # c,f
       2       2       2      71  # c,f
       3       2       2       3  # c,f
       4       1       2       4  # c,c
       5       2       4      70  # c,f
       6       2       4       5  # c,f
       7       1       4       6  # c,c
       8       2       6      69  # c,f
       9       2       6       7  # c,f
      10       1       6       8  # c,c
      11       2       8      68  # c,f
      12       2       8       9  # c,f
      13       1       8      10  # c,c
      14       2      10      67  # c,f
      15       2      10      11  # c,f
      16       1      10      12  # c,c
      17       2      12      66  # c,f
      18       2      12      13  # c,f
      19       1      12      14  # c,c
      20       2      14      65  # c,f
      21       2      14      15  # c,f
      22       1      14      16  # c,c
      23       2      16      64  # c,f
      24       2      16      17  # c,f
      25       1      16      18  # c,c
      26       2      18      63  # c,f
      27       2      18      19  # c,f
      28       1      18      20  # c,c
      29       2      20      62  # c,f
      30       2      20      21  # c,f
      31       1      20      22  # c,c
      32       2      22      61  # c,f
      33       2      22      23  # c,f
      34       1      22      24  # c,c
      35       2      24      60  # c,f
      36       2      24      25  # c,f
      37       1      24      26  # c,c
      38       2      26      59  # c,f
      39       2      26      27  # c,f
      40       1      26      28  # c,c
      41       2      28      58  # c,f
      42       2      28      29  # c,f
      43       1      28      30  # c,c
      44       2      30      57  # c,f
      45       3      30      31  # c,oc
      46       1      30      53  # c,c
      47       3      32      31  # c,oc
      48       2      32      52  # c,f
      49       2      32      33  # c,f
      50       1      32      34  # c,c
      51       2      34      51  # c,f
      52       1      34      35  # c,c
      53       3      34      39  # c,oc
      54       2      35      38  # c,f
      55       2      35      36  # c,f
      56       2      35      37  # c,f
      57       3      40      39  # c,oc
      58       2      40      50  # c,f
      59       2      40      41  # c,f
      60       1      40      42  # c,c
      61       2      42      49  # c,f
      62       2      42      43  # c,f
      63       4      42      44  # c,s
      64       8      47      44  # oh,s
      65       7      45      44  # o=,s
      66       7      46      44  # o=,s
      67       5      48      47  # ho,oh
      68       2      53      56  # c,f
      69       2      53      54  # c,f
      70       2      53      55  # c,f
      71       6      73      72  # hw,o*
      72       6      74      72  # hw,o*
      73       6      76      75  # hw,o*
      74       6      77      75  # hw,o*
      75       6      79      78  # hw,o*
      76       6      80      78  # hw,o*
      77       6      82      81  # hw,o*
      78       6      83      81  # hw,o*
      79       6      85      84  # hw,o*
      80       6      86      84  # hw,o*
      81       6      88      87  # hw,o*
      82       6      89      87  # hw,o*

Angles

       1       8       1       2      71  # f,c,f
       2       8       1       2       3  # f,c,f
       3       2       4       2       1  # c,c,f
       4       2       2       4      70  # c,c,f
       5       2       2       4       5  # c,c,f
       6       1       2       4       6  # c,c,c
       7       8       3       2      71  # f,c,f
       8       2       4       2       3  # c,c,f
       9       2       4       2      71  # c,c,f
      10       2       4       6      69  # c,c,f
      11       2       4       6       7  # c,c,f
      12       1       4       6       8  # c,c,c
      13       8       5       4      70  # f,c,f
      14       2       6       4       5  # c,c,f
      15       2       6       4      70  # c,c,f
      16       2       6       8      68  # c,c,f
      17       2       6       8       9  # c,c,f
      18       1       6       8      10  # c,c,c
      19       8       7       6      69  # f,c,f
      20       2       8       6       7  # c,c,f
      21       2       8       6      69  # c,c,f
      22       2       8      10      67  # c,c,f
      23       2       8      10      11  # c,c,f
      24       1       8      10      12  # c,c,c
      25       8       9       8      68  # f,c,f
      26       2      10       8       9  # c,c,f
      27       2      10       8      68  # c,c,f
      28       2      10      12      66  # c,c,f
      29       2      10      12      13  # c,c,f
      30       1      10      12      14  # c,c,c
      31       8      11      10      67  # f,c,f
      32       2      12      10      11  # c,c,f
      33       2      12      10      67  # c,c,f
      34       2      12      14      65  # c,c,f
      35       2      12      14      15  # c,c,f
      36       1      12      14      16  # c,c,c
      37       8      13      12      66  # f,c,f
      38       2      14      12      13  # c,c,f
      39       2      14      12      66  # c,c,f
      40       2      14      16      64  # c,c,f
      41       2      14      16      17  # c,c,f
      42       1      14      16      18  # c,c,c
      43       8      15      14      65  # f,c,f
      44       2      16      14      15  # c,c,f
      45       2      16      14      65  # c,c,f
      46       2      16      18      63  # c,c,f
      47       2      16      18      19  # c,c,f
      48       1      16      18      20  # c,c,c
      49       8      17      16      64  # f,c,f
      50       2      18      16      17  # c,c,f
      51       2      18      16      64  # c,c,f
      52       2      18      20      62  # c,c,f
      53       2      18      20      21  # c,c,f
      54       1      18      20      22  # c,c,c
      55       8      19      18      63  # f,c,f
      56       2      20      18      19  # c,c,f
      57       2      20      18      63  # c,c,f
      58       2      20      22      61  # c,c,f
      59       2      20      22      23  # c,c,f
      60       1      20      22      24  # c,c,c
      61       8      21      20      62  # f,c,f
      62       2      22      20      21  # c,c,f
      63       2      22      20      62  # c,c,f
      64       2      22      24      60  # c,c,f
      65       2      22      24      25  # c,c,f
      66       1      22      24      26  # c,c,c
      67       8      23      22      61  # f,c,f
      68       2      24      22      23  # c,c,f
      69       2      24      22      61  # c,c,f
      70       2      24      26      59  # c,c,f
      71       2      24      26      27  # c,c,f
      72       1      24      26      28  # c,c,c
      73       8      25      24      60  # f,c,f
      74       2      26      24      25  # c,c,f
      75       2      26      24      60  # c,c,f
      76       2      26      28      58  # c,c,f
      77       2      26      28      29  # c,c,f
      78       1      26      28      30  # c,c,c
      79       8      27      26      59  # f,c,f
      80       2      28      26      27  # c,c,f
      81       2      28      26      59  # c,c,f
      82       2      28      30      57  # c,c,f
      83       3      28      30      31  # c,c,oc
      84       1      28      30      53  # c,c,c
      85       8      29      28      58  # f,c,f
      86       2      30      28      29  # c,c,f
      87       2      30      28      58  # c,c,f
      88       5      30      31      32  # c,oc,c
      89       2      30      53      56  # c,c,f
      90       2      30      53      54  # c,c,f
      91       2      30      53      55  # c,c,f
      92       9      57      30      31  # f,c,oc
      93       3      53      30      31  # c,c,oc
      94       9      52      32      31  # f,c,oc
      95       9      33      32      31  # f,c,oc
      96       3      34      32      31  # c,c,oc
      97       2      32      34      51  # c,c,f
      98       1      32      34      35  # c,c,c
      99       3      32      34      39  # c,c,oc
     100       8      33      32      52  # f,c,f
     101       2      34      32      33  # c,c,f
     102       2      34      32      52  # c,c,f
     103       2      34      35      38  # c,c,f
     104       2      34      35      36  # c,c,f
     105       2      34      35      37  # c,c,f
     106       5      34      39      40  # c,oc,c
     107       2      35      34      51  # c,c,f
     108       3      35      34      39  # c,c,oc
     109       8      36      35      38  # f,c,f
     110       8      36      35      37  # f,c,f
     111       8      37      35      38  # f,c,f
     112       9      51      34      39  # f,c,oc
     113       9      50      40      39  # f,c,oc
     114       9      41      40      39  # f,c,oc
     115       3      42      40      39  # c,c,oc
     116       2      40      42      49  # c,c,f
     117       2      40      42      43  # c,c,f
     118       4      40      42      44  # c,c,s
     119       8      41      40      50  # f,c,f
     120       2      42      40      41  # c,c,f
     121       2      42      40      50  # c,c,f
     122       7      42      44      47  # c,s,oh
     123       6      42      44      45  # c,s,o=
     124       6      42      44      46  # c,s,o=
     125       8      43      42      49  # f,c,f
     126      10      43      42      44  # f,c,s
     127      10      49      42      44  # f,c,s
     128      11      48      47      44  # ho,oh,s
     129      14      45      44      47  # o=,s,oh
     130      13      45      44      46  # o=,s,o=
     131      14      46      44      47  # o=,s,oh
     132       2      53      30      57  # c,c,f
     133       8      54      53      56  # f,c,f
     134       8      54      53      55  # f,c,f
     135       8      55      53      56  # f,c,f
     136      12      73      72      74  # hw,o*,hw
     137      12      76      75      77  # hw,o*,hw
     138      12      79      78      80  # hw,o*,hw
     139      12      82      81      83  # hw,o*,hw
     140      12      85      84      86  # hw,o*,hw
     141      12      88      87      89  # hw,o*,hw

Dihedrals

       1       9       1       2       4      70  # f,c,c,f
       2       9       1       2       4       5  # f,c,c,f
       3       2       6       4       2       1  # c,c,c,f
       4       2       2       4       6      69  # c,c,c,f
       5       2       2       4       6       7  # c,c,c,f
       6       1       2       4       6       8  # c,c,c,c
       7       9       3       2       4      70  # f,c,c,f
       8       9       3       2       4       5  # f,c,c,f
       9       2       6       4       2       3  # c,c,c,f
      10       2       4       6       8      68  # c,c,c,f
      11       2       4       6       8       9  # c,c,c,f
      12       1       4       6       8      10  # c,c,c,c
      13       9       5       4       2      71  # f,c,c,f
      14       9       5       4       6      69  # f,c,c,f
      15       9       5       4       6       7  # f,c,c,f
      16       2       8       6       4       5  # c,c,c,f
      17       2       6       4       2      71  # c,c,c,f
      18       2       6       8      10      67  # c,c,c,f
      19       2       6       8      10      11  # c,c,c,f
      20       1       6       8      10      12  # c,c,c,c
      21       9       7       6       4      70  # f,c,c,f
      22       9       7       6       8      68  # f,c,c,f
      23       9       7       6       8       9  # f,c,c,f
      24       2      10       8       6       7  # c,c,c,f
      25       2       8       6       4      70  # c,c,c,f
      26       2       8      10      12      66  # c,c,c,f
      27       2       8      10      12      13  # c,c,c,f
      28       1       8      10      12      14  # c,c,c,c
      29       9       9       8       6      69  # f,c,c,f
      30       9       9       8      10      67  # f,c,c,f
      31       9       9       8      10      11  # f,c,c,f
      32       2      12      10       8       9  # c,c,c,f
      33       2      10       8       6      69  # c,c,c,f
      34       2      10      12      14      65  # c,c,c,f
      35       2      10      12      14      15  # c,c,c,f
      36       1      10      12      14      16  # c,c,c,c
      37       9      11      10       8      68  # f,c,c,f
      38       9      11      10      12      66  # f,c,c,f
      39       9      11      10      12      13  # f,c,c,f
      40       2      14      12      10      11  # c,c,c,f
      41       2      12      10       8      68  # c,c,c,f
      42       2      12      14      16      64  # c,c,c,f
      43       2      12      14      16      17  # c,c,c,f
      44       1      12      14      16      18  # c,c,c,c
      45       9      13      12      10      67  # f,c,c,f
      46       9      13      12      14      65  # f,c,c,f
      47       9      13      12      14      15  # f,c,c,f
      48       2      16      14      12      13  # c,c,c,f
      49       2      14      12      10      67  # c,c,c,f
      50       2      14      16      18      63  # c,c,c,f
      51       2      14      16      18      19  # c,c,c,f
      52       1      14      16      18      20  # c,c,c,c
      53       9      15      14      12      66  # f,c,c,f
      54       9      15      14      16      64  # f,c,c,f
      55       9      15      14      16      17  # f,c,c,f
      56       2      18      16      14      15  # c,c,c,f
      57       2      16      14      12      66  # c,c,c,f
      58       2      16      18      20      62  # c,c,c,f
      59       2      16      18      20      21  # c,c,c,f
      60       1      16      18      20      22  # c,c,c,c
      61       9      17      16      14      65  # f,c,c,f
      62       9      17      16      18      63  # f,c,c,f
      63       9      17      16      18      19  # f,c,c,f
      64       2      20      18      16      17  # c,c,c,f
      65       2      18      16      14      65  # c,c,c,f
      66       2      18      20      22      61  # c,c,c,f
      67       2      18      20      22      23  # c,c,c,f
      68       1      18      20      22      24  # c,c,c,c
      69       9      19      18      16      64  # f,c,c,f
      70       9      19      18      20      62  # f,c,c,f
      71       9      19      18      20      21  # f,c,c,f
      72       2      22      20      18      19  # c,c,c,f
      73       2      20      18      16      64  # c,c,c,f
      74       2      20      22      24      60  # c,c,c,f
      75       2      20      22      24      25  # c,c,c,f
      76       1      20      22      24      26  # c,c,c,c
      77       9      21      20      18      63  # f,c,c,f
      78       9      21      20      22      61  # f,c,c,f
      79       9      21      20      22      23  # f,c,c,f
      80       2      24      22      20      21  # c,c,c,f
      81       2      22      20      18      63  # c,c,c,f
      82       2      22      24      26      59  # c,c,c,f
      83       2      22      24      26      27  # c,c,c,f
      84       1      22      24      26      28  # c,c,c,c
      85       9      23      22      20      62  # f,c,c,f
      86       9      23      22      24      60  # f,c,c,f
      87       9      23      22      24      25  # f,c,c,f
      88       2      26      24      22      23  # c,c,c,f
      89       2      24      22      20      62  # c,c,c,f
      90       2      24      26      28      58  # c,c,c,f
      91       2      24      26      28      29  # c,c,c,f
      92       1      24      26      28      30  # c,c,c,c
      93       9      25      24      22      61  # f,c,c,f
      94       9      25      24      26      59  # f,c,c,f
      95       9      25      24      26      27  # f,c,c,f
      96       2      28      26      24      25  # c,c,c,f
      97       2      26      24      22      61  # c,c,c,f
      98       2      26      28      30      57  # c,c,c,f
      99       3      26      28      30      31  # c,c,c,oc
     100       1      26      28      30      53  # c,c,c,c
     101       9      27      26      24      60  # f,c,c,f
     102       9      27      26      28      58  # f,c,c,f
     103       9      27      26      28      29  # f,c,c,f
     104       2      30      28      26      27  # c,c,c,f
     105       2      28      26      24      60  # c,c,c,f
     106       4      28      30      31      32  # c,c,oc,c
     107       2      28      30      53      56  # c,c,c,f
     108       2      28      30      53      54  # c,c,c,f
     109       2      28      30      53      55  # c,c,c,f
     110       9      29      28      26      59  # f,c,c,f
     111       9      29      28      30      57  # f,c,c,f
     112      10      29      28      30      31  # f,c,c,oc
     113       2      53      30      28      29  # c,c,c,f
     114       2      30      28      26      59  # c,c,c,f
     115       7      30      31      32      52  # c,oc,c,f
     116       7      30      31      32      33  # c,oc,c,f
     117       4      34      32      31      30  # c,c,oc,c
     118      10      58      28      30      31  # f,c,c,oc
     119      10      56      53      30      31  # f,c,c,oc
     120      10      54      53      30      31  # f,c,c,oc
     121      10      55      53      30      31  # f,c,c,oc
     122      10      51      34      32      31  # f,c,c,oc
     123       3      35      34      32      31  # c,c,c,oc
     124      15      31      32      34      39  # oc,c,c,oc
     125       7      32      31      30      57  # c,oc,c,f
     126       4      53      30      31      32  # c,c,oc,c
     127       2      32      34      35      38  # c,c,c,f
     128       2      32      34      35      36  # c,c,c,f
     129       2      32      34      35      37  # c,c,c,f
     130       4      32      34      39      40  # c,c,oc,c
     131       9      33      32      34      51  # f,c,c,f
     132       2      35      34      32      33  # c,c,c,f
     133      10      33      32      34      39  # f,c,c,oc
     134       7      34      39      40      50  # c,oc,c,f
     135       7      34      39      40      41  # c,oc,c,f
     136       4      42      40      39      34  # c,c,oc,c
     137       2      35      34      32      52  # c,c,c,f
     138       4      35      34      39      40  # c,c,oc,c
     139       9      36      35      34      51  # f,c,c,f
     140      10      36      35      34      39  # f,c,c,oc
     141       9      37      35      34      51  # f,c,c,f
     142      10      37      35      34      39  # f,c,c,oc
     143       9      38      35      34      51  # f,c,c,f
     144      10      38      35      34      39  # f,c,c,oc
     145      10      52      32      34      39  # f,c,c,oc
     146      10      49      42      40      39  # f,c,c,oc
     147      10      43      42      40      39  # f,c,c,oc
     148      16      39      40      42      44  # oc,c,c,s
     149       7      40      39      34      51  # c,oc,c,f
     150       6      40      42      44      47  # c,c,s,oh
     151       5      40      42      44      45  # c,c,s,o=
     152       5      40      42      44      46  # c,c,s,o=
     153       9      41      40      42      49  # f,c,c,f
     154       9      41      40      42      43  # f,c,c,f
     155      11      41      40      42      44  # f,c,c,s
     156       8      42      44      47      48  # c,s,oh,ho
     157       9      43      42      40      50  # f,c,c,f
     158      13      43      42      44      47  # f,c,s,oh
     159      12      43      42      44      45  # f,c,s,o=
     160      12      43      42      44      46  # f,c,s,o=
     161      11      50      40      42      44  # f,c,c,s
     162      12      49      42      44      45  # f,c,s,o=
     163      14      48      47      44      45  # ho,oh,s,o=
     164      12      49      42      44      46  # f,c,s,o=
     165      14      48      47      44      46  # ho,oh,s,o=
     166      13      49      42      44      47  # f,c,s,oh
     167       9      49      42      40      50  # f,c,c,f
     168       9      51      34      32      52  # f,c,c,f
     169       2      53      30      28      58  # c,c,c,f
     170       9      54      53      30      57  # f,c,c,f
     171       9      55      53      30      57  # f,c,c,f
     172       9      56      53      30      57  # f,c,c,f
     173       9      57      30      28      58  # f,c,c,f
     174       9      58      28      26      59  # f,c,c,f
     175       9      59      26      24      60  # f,c,c,f
     176       9      60      24      22      61  # f,c,c,f
     177       9      61      22      20      62  # f,c,c,f
     178       9      62      20      18      63  # f,c,c,f
     179       9      63      18      16      64  # f,c,c,f
     180       9      64      16      14      65  # f,c,c,f
     181       9      65      14      12      66  # f,c,c,f